# vtk DataFile Version 3.0
vtk output
ASCII
DATASET UNSTRUCTURED_GRID
POINTS 7231 double
0.0 0.0 0
1.0 0.0 0
1.0 1.0 0
0.0 1.0 0
0.67841241 0.5 0
0.6780603538633034 0.4887973920856232 0
0.6770055748579461 0.47763899574669955 0
0.6752522357147797 0.4665688480757927 0
0.6728072560623773 0.4556306378882901 0
0.6696802851184226 0.44486753330260914 0
0.6658836636086538 0.43432201137535453 0
0.661432375063659 0.4240356904637828 0
0.6563439866857246 0.4140491659771584 0
0.650638580019115 0.40440185016522134 0
0.6443386716973908 0.3951318165760418 0
0.6374691245805437 0.386275649797121 0
0.6300570496326461 0.37786830107273733 0
0.6221316989272626 0.3699429503673539 0
0.613724350202879 0.3625308754194563 0
0.6048681834239581 0.35566132830260916 0
0.5955981498347785 0.349361419980885 0
0.5859508340228415 0.34365601331427537 0
0.5759643095362171 0.33856762493634096 0
0.5656779886246455 0.3341163363913461 0
0.5551324666973908 0.3303197148815774 0
0.5443693621117098 0.32719274393762265 0
0.5334311519242072 0.3247477642852204 0
0.5223610042533005 0.32299442514205384 0
0.5112026079143768 0.32193964613669657 0
0.49999999999999994 0.32158759000000003 0
0.4887973920856232 0.32193964613669657 0
0.47763899574669955 0.3229944251420539 0
0.46656884807579274 0.3247477642852204 0
0.4556306378882901 0.32719274393762265 0
0.44486753330260914 0.3303197148815774 0
0.43432201137535453 0.33411633639134614 0
0.4240356904637828 0.33856762493634096 0
0.4140491659771584 0.3436560133142754 0
0.40440185016522134 0.349361419980885 0
0.3951318165760418 0.3556613283026092 0
0.38627564979712103 0.36253087541945633 0
0.37786830107273733 0.3699429503673539 0
0.3699429503673539 0.3778683010727374 0
0.3625308754194564 0.386275649797121 0
0.3556613283026092 0.39513181657604185 0
0.349361419980885 0.40440185016522134 0
0.34365601331427537 0.41404916597715846 0
0.33856762493634096 0.42403569046378276 0
0.3341163363913461 0.4343220113753546 0
0.3303197148815774 0.44486753330260914 0
0.32719274393762265 0.45563063788829017 0
0.32474776428522045 0.4665688480757927 0
0.32299442514205384 0.4776389957466996 0
0.32193964613669657 0.4887973920856231 0
0.32158759000000003 0.5 0
0.32193964613669657 0.5112026079143769 0
0.3229944251420539 0.5223610042533005 0
0.32474776428522045 0.5334311519242073 0
0.32719274393762265 0.5443693621117098 0
0.3303197148815774 0.5551324666973908 0
0.3341163363913461 0.5656779886246454 0
0.33856762493634107 0.5759643095362174 0
0.3436560133142754 0.5859508340228416 0
0.3493614199808851 0.5955981498347788 0
0.3556613283026092 0.6048681834239582 0
0.3625308754194564 0.6137243502028791 0
0.3699429503673539 0.6221316989272626 0
0.3778683010727374 0.6300570496326461 0
0.386275649797121 0.6374691245805436 0
0.39513181657604185 0.6443386716973908 0
0.4044018501652213 0.650638580019115 0
0.41404916597715835 0.6563439866857246 0
0.4240356904637827 0.661432375063659 0
0.43432201137535464 0.6658836636086539 0
0.4448675333026092 0.6696802851184226 0
0.4556306378882902 0.6728072560623775 0
0.4665688480757927 0.6752522357147795 0
0.47763899574669955 0.6770055748579461 0
0.4887973920856231 0.6780603538633034 0
0.5 0.67841241 0
0.5112026079143769 0.6780603538633034 0
0.5223610042533005 0.6770055748579462 0
0.5334311519242073 0.6752522357147795 0
0.5443693621117098 0.6728072560623773 0
0.5551324666973908 0.6696802851184226 0
0.5656779886246454 0.6658836636086539 0
0.5759643095362172 0.661432375063659 0
0.5859508340228415 0.6563439866857246 0
0.5955981498347787 0.650638580019115 0
0.6048681834239582 0.6443386716973908 0
0.613724350202879 0.6374691245805436 0
0.6221316989272626 0.6300570496326461 0
0.6300570496326461 0.6221316989272626 0
0.6374691245805436 0.613724350202879 0
0.6443386716973908 0.6048681834239582 0
0.650638580019115 0.5955981498347787 0
0.6563439866857246 0.5859508340228416 0
0.661432375063659 0.5759643095362172 0
0.6658836636086539 0.5656779886246454 0
0.6696802851184226 0.5551324666973908 0
0.6728072560623773 0.5443693621117098 0
0.6752522357147797 0.5334311519242073 0
0.6770055748579462 0.5223610042533005 0
0.6780603538633034 0.5112026079143769 0
0.339206206 0.25 0
0.33903017792967843 0.24439869598002106 0
0.3385027884210878 0.23881949774801653 0
0.3376261188396771 0.23328442385051504 0
0.33640362899977183 0.22781531869545515 0
0.3348401435102678 0.2224337663422876 0
0.33294183273410344 0.2171610053195527 0
0.33071618843665657 0.2120178448061121 0
0.328171994219169 0.2070245825068255 0
0.32531929085388545 0.2022009245467839 0
0.3221693366577124 0.19756590770023566 0
0.31873456306078507 0.19313782426113651 0
0.31502852554529165 0.18893414985182155 0
0.3110658501481784 0.1849714744547083 0
0.3068621757388635 0.1812654369392149 0
0.3024340922997643 0.1778306633422876 0
0.2977990754532161 0.17468070914611455 0
0.29297541749317446 0.17182800578083102 0
0.28798215519388787 0.16928381156334343 0
0.28283899468044726 0.16705816726589656 0
0.2775662336577124 0.16515985648973217 0
0.2721846813045448 0.16359637100022814 0
0.26671557614948493 0.16237388116032295 0
0.2611805022519834 0.16149721157891223 0
0.2556013040199789 0.16096982207032157 0
0.24999999999999997 0.160793794 0
0.24439869598002106 0.16096982207032157 0
0.23881949774801653 0.16149721157891223 0
0.23328442385051504 0.16237388116032295 0
0.22781531869545515 0.16359637100022817 0
0.2224337663422876 0.1651598564897322 0
0.2171610053195527 0.16705816726589656 0
0.2120178448061121 0.16928381156334343 0
0.20702458250682554 0.17182800578083102 0
0.2022009245467839 0.17468070914611455 0
0.19756590770023566 0.17783066334228761 0
0.19313782426113651 0.18126543693921493 0
0.18893414985182155 0.18497147445470835 0
0.1849714744547083 0.18893414985182158 0
0.18126543693921493 0.19313782426113651 0
0.1778306633422876 0.1975659077002357 0
0.17468070914611458 0.20220092454678387 0
0.17182800578083102 0.20702458250682554 0
0.16928381156334343 0.2120178448061121 0
0.16705816726589656 0.21716100531955274 0
0.1651598564897322 0.22243376634228756 0
0.16359637100022814 0.22781531869545518 0
0.16237388116032297 0.23328442385051504 0
0.16149721157891223 0.23881949774801656 0
0.16096982207032157 0.24439869598002106 0
0.160793794 0.25 0
0.16096982207032157 0.255601304019979 0
0.16149721157891223 0.26118050225198347 0
0.16237388116032297 0.266715576149485 0
0.16359637100022814 0.2721846813045448 0
0.1651598564897322 0.2775662336577124 0
0.16705816726589656 0.28283899468044726 0
0.1692838115633435 0.2879821551938879 0
0.17182800578083102 0.2929754174931745 0
0.1746807091461146 0.29779907545321616 0
0.17783066334228761 0.30243409229976437 0
0.18126543693921493 0.30686217573886354 0
0.18497147445470835 0.31106585014817845 0
0.18893414985182158 0.3150285255452917 0
0.1931378242611365 0.31873456306078507 0
0.1975659077002357 0.3221693366577124 0
0.20220092454678384 0.3253192908538854 0
0.2070245825068255 0.328171994219169 0
0.21201784480611208 0.3307161884366565 0
0.21716100531955276 0.33294183273410344 0
0.22243376634228762 0.3348401435102678 0
0.22781531869545524 0.33640362899977183 0
0.23328442385051504 0.337626118839677 0
0.23881949774801656 0.3385027884210878 0
0.24439869598002104 0.33903017792967843 0
0.25 0.339206206 0
0.255601304019979 0.33903017792967843 0
0.2611805022519834 0.3385027884210878 0
0.266715576149485 0.337626118839677 0
0.2721846813045448 0.33640362899977183 0
0.2775662336577124 0.3348401435102678 0
0.28283899468044726 0.33294183273410344 0
0.2879821551938879 0.33071618843665657 0
0.29297541749317446 0.328171994219169 0
0.29779907545321616 0.3253192908538854 0
0.3024340922997643 0.3221693366577124 0
0.3068621757388635 0.31873456306078507 0
0.31106585014817845 0.3150285255452917 0
0.3150285255452917 0.3110658501481784 0
0.31873456306078507 0.3068621757388635 0
0.3221693366577124 0.3024340922997643 0
0.3253192908538854 0.29779907545321616 0
0.328171994219169 0.29297541749317446 0
0.3307161884366565 0.2879821551938879 0
0.33294183273410344 0.2828389946804472 0
0.3348401435102678 0.2775662336577124 0
0.33640362899977183 0.2721846813045448 0
0.3376261188396771 0.26671557614948493 0
0.3385027884210878 0.2611805022519834 0
0.33903017792967843 0.25560130401997894 0
0.339206206 0.75 0
0.33903017792967843 0.7443986959800211 0
0.3385027884210878 0.7388194977480165 0
0.3376261188396771 0.7332844238505151 0
0.33640362899977183 0.7278153186954551 0
0.3348401435102678 0.7224337663422876 0
0.33294183273410344 0.7171610053195527 0
0.33071618843665657 0.7120178448061121 0
0.328171994219169 0.7070245825068255 0
0.32531929085388545 0.7022009245467838 0
0.3221693366577124 0.6975659077002356 0
0.31873456306078507 0.6931378242611365 0
0.31502852554529165 0.6889341498518216 0
0.3110658501481784 0.6849714744547083 0
0.3068621757388635 0.6812654369392149 0
0.3024340922997643 0.6778306633422876 0
0.2977990754532161 0.6746807091461146 0
0.29297541749317446 0.671828005780831 0
0.28798215519388787 0.6692838115633434 0
0.28283899468044726 0.6670581672658966 0
0.2775662336577124 0.6651598564897322 0
0.2721846813045448 0.6635963710002282 0
0.26671557614948493 0.6623738811603229 0
0.2611805022519834 0.6614972115789122 0
0.2556013040199789 0.6609698220703215 0
0.24999999999999997 0.660793794 0
0.24439869598002106 0.6609698220703215 0
0.23881949774801653 0.6614972115789122 0
0.23328442385051504 0.6623738811603229 0
0.22781531869545515 0.6635963710002282 0
0.2224337663422876 0.6651598564897322 0
0.2171610053195527 0.6670581672658966 0
0.2120178448061121 0.6692838115633435 0
0.20702458250682554 0.671828005780831 0
0.2022009245467839 0.6746807091461146 0
0.19756590770023566 0.6778306633422876 0
0.19313782426113651 0.6812654369392149 0
0.18893414985182155 0.6849714744547083 0
0.1849714744547083 0.6889341498518216 0
0.18126543693921493 0.6931378242611365 0
0.1778306633422876 0.6975659077002356 0
0.17468070914611458 0.7022009245467838 0
0.17182800578083102 0.7070245825068255 0
0.16928381156334343 0.7120178448061121 0
0.16705816726589656 0.7171610053195527 0
0.1651598564897322 0.7224337663422876 0
[...]
POINT_DATA 7231
SCALARS ux double 1
 LOOKUP_TABLE default
  2.917648
  2.917648
  2.917648
  2.917648
  0.000000
  0.000000
  0.000000
  0.000000
  0.000000
  0.000000
  0.000000
  0.000000
  0.000000
  0.000000
  0.000000
  0.000000
  0.000000
  0.000000
  0.000000
  0.000000
  0.000000
  0.000000
  0.000000
  0.000000
  0.000000
  0.000000
  0.000000
  0.000000
  0.000000
  0.000000
  0.000000
  0.000000
  0.000000
  0.000000
  0.000000
  0.000000
  0.000000
  0.000000
  0.000000
  0.000000
  0.000000
  0.000000
  0.000000
  0.000000
  0.000000
  0.000000
  0.000000
  0.000000
  0.000000
  0.000000
  0.000000
  0.000000
  0.000000
  0.000000
  0.000000
  0.000000
  0.000000
  0.000000
  0.000000
  0.000000
  0.000000
  0.000000
  0.000000
  0.000000
  0.000000
  0.000000
  0.000000
  0.000000
  0.000000
  0.000000
  0.000000
  0.000000
  0.000000
  0.000000
  0.000000
  0.000000
  0.000000
  0.000000
  0.000000
  0.000000
  0.000000
  0.000000
  0.000000
  0.000000
  0.000000
  0.000000
  0.000000
  0.000000
  0.000000
  0.000000
  0.000000
  0.000000
  0.000000
  0.000000
  0.000000
  0.000000
  0.000000
  0.000000
  0.000000
  0.000000
  0.000000
  0.000000
  0.000000
  0.000000
  0.000000
  0.000000
  0.000000
  0.000000
  0.000000
  0.000000
  0.000000
  0.000000
  0.000000
  0.000000
  0.000000
  0.000000
  0.000000
  0.000000
  0.000000
  0.000000
  0.000000
  0.000000
  0.000000
  0.000000
  0.000000
  0.000000
  0.000000
  0.000000
  0.000000
  0.000000
  0.000000
  0.000000
  0.000000
  0.000000
  0.000000
  0.000000
  0.000000
  0.000000
  0.000000
  0.000000
  0.000000
  0.000000
  0.000000
  0.000000
  0.000000
  0.000000
  0.000000
  0.000000
  0.000000
  0.000000
  0.000000
  0.000000
  0.000000
  0.000000
  0.000000
  0.000000
  0.000000
  0.000000
  0.000000
  0.000000
  0.000000
  0.000000
  0.000000
  0.000000
  0.000000
  0.000000
  0.000000
  0.000000
  0.000000
  0.000000
  0.000000
  0.000000
  0.000000
  0.000000
  0.000000
  0.000000
  0.000000
  0.000000
  0.000000
  0.000000
  0.000000
  0.000000
  0.000000
  0.000000
  0.000000
  0.000000
  0.000000
  0.000000
  0.000000
  0.000000
  0.000000
  0.000000
  0.000000
  0.000000
  0.000000
  0.000000
  0.000000
  0.000000
  0.000000
  0.000000
  0.000000
  0.000000
  0.000000
  0.000000
  0.000000
  0.000000
  0.000000
  0.000000
  0.000000
  0.000000
  0.000000
  0.000000
  0.000000
  0.000000
  0.000000
  0.000000
  0.000000
  0.000000
  0.000000
  0.000000
  0.000000
  0.000000
  0.000000
  0.000000
  0.000000
  0.000000
  0.000000
  0.000000
  0.000000
  0.000000
  0.000000
  0.000000
  0.000000
  0.000000
  0.000000
  0.000000
  0.000000
  0.000000
  0.000000
  0.000000
  0.000000
  0.000000
  0.000000
  0.000000
  0.000000
  0.000000
  0.000000
  0.000000
  0.000000
  0.000000
  0.000000
  0.000000
  0.000000
  0.000000
  0.000000
  0.000000
  0.000000
  0.000000
  0.000000
  0.000000
  0.000000
  0.000000
  0.000000
  0.000000
  0.000000
  0.000000
  0.000000
  0.000000
  0.000000
  0.000000
  0.000000
  0.000000
  0.000000
  0.000000
  0.000000
  0.000000
  0.000000
  0.000000
  0.000000
  0.000000
  0.000000
  0.000000
  0.000000
  0.000000
  0.000000
  0.000000
  0.000000
  0.000000
  0.000000
  0.000000
  0.000000
  0.000000
  0.000000
  0.000000
  0.000000
  0.000000
  0.000000
  0.000000
  0.000000
  0.000000
  0.000000
  0.000000
  0.000000
  0.000000
  0.000000
  0.000000
  0.000000
  0.000000
  0.000000
  0.000000
  0.000000
  0.000000
  0.000000
  0.000000
  0.000000
  0.000000
  0.000000
  0.000000
  0.000000
  0.000000
  0.000000
  0.000000
  0.000000
  0.000000
  0.000000
  0.000000
  0.000000
  0.000000
  0.000000
  0.000000
  0.000000
  0.000000
  0.000000
  0.000000
  0.000000
  0.000000
  0.000000
  0.000000
  0.000000
  0.000000
  0.000000
  0.000000
  0.000000
  0.000000
  0.000000
  0.000000
  0.000000
  0.000000
  0.000000
  0.000000
  0.000000
  0.000000
  0.000000
  0.000000
  0.000000
  0.000000
  0.000000
  0.000000
  0.000000
  0.000000
  0.000000
  0.000000
  0.000000
  0.000000
  0.000000
  0.000000
  0.000000
  0.000000
  0.000000
  0.000000
  0.000000
  0.000000
  0.000000
  0.000000
  0.000000
  0.000000
  0.000000
  0.000000
  0.000000
  0.000000
  0.000000
  0.000000
  0.000000
  0.000000
  0.000000
  0.000000
  0.000000
  0.000000
  0.000000
  0.000000
  0.000000
  0.000000
  0.000000
  0.000000
  0.000000
  0.000000
  0.000000
  0.000000
  0.000000
  0.000000
  0.000000
  0.000000
  0.000000
  0.000000
  0.000000
  0.000000
  0.000000
  0.000000
  0.000000
  0.000000
  0.000000
  0.000000
  0.000000
  0.000000
  0.000000
  0.000000
  0.000000
  0.000000
  0.000000
  0.000000
  0.000000
  0.000000
  0.000000
  0.000000
  0.000000
  0.000000
  0.000000
  0.000000
  0.000000
  0.000000
  0.000000
  0.000000
  0.000000
  0.000000
  0.000000
  0.000000
  0.000000
  0.000000
  0.000000
  0.000000
  0.000000
  0.000000
  0.000000
  0.000000
  0.000000
  0.000000
  0.000000
  0.000000
  0.000000
  0.000000
  0.000000
  0.000000
  0.000000
  0.000000
  0.000000
  0.000000
  0.000000
  0.000000
  0.000000
  0.000000
  0.000000
  0.000000
  0.000000
  0.000000
  0.000000
  0.000000
  0.000000
  0.000000
  0.000000
  0.000000
  0.000000
  0.000000
  0.000000
  0.000000
  0.000000
  0.000000
  0.000000
  0.000000
  0.000000
  0.000000
  0.000000
  0.000000
  0.000000
  0.000000
  0.000000
  0.000000
  0.000000
  0.000000
  0.000000
  0.000000
  0.000000
  0.000000
  0.000000
  0.000000
  0.000000
  0.000000
  0.000000
  0.000000
  0.000000
  0.000000
  0.000000
  0.000000
  0.000000
  0.000000
  2.993283
  0.162884
  0.162884
  2.993283
  0.412012
  3.951947
  3.951947
  0.412012
  0.412012
  3.951947
  3.951947
  0.412012
  0.247617
  0.247617
  1.589265
  1.589265
  1.905748
  3.393874
  0.119379
  3.407174
  0.119379
  1.905748
  1.905748
  3.393874
  1.905748
  3.407174
  3.393874
  3.393874
  0.119379
  3.407174
  0.119379
  3.407174
  0.182379
  2.166395
  0.182379
  2.166395
  2.240836
  2.240836
  2.240836
  2.240836
  0.268071
  0.720937
  0.720937
  0.268071
  0.149821
  2.369200
  2.369200
  0.149821
  0.119304
  3.179786
  0.119304
  3.179786
  0.741114
  3.208404
  0.741114
  0.741114
  3.208404
  3.208404
  0.741114
  3.208404
  0.560978
  0.280273
  0.560978
  0.280273
  3.226172
  0.144815
  3.226172
  0.144815
  0.925388
  0.222992
  0.925388
  0.222992
  0.921826
  0.921826
  0.222711
  0.222711
  0.323901
  0.329052
  0.323901
  0.329052
  1.862889
  0.116965
  0.116965
  1.862889
  2.803439
  0.176261
  0.176261
  2.803439
  0.309553
  0.353486
  0.309553
  0.353486
  1.056713
  1.952742
  1.056713
  1.952742
  0.093304
  2.034345
  2.034345
  0.093304
  0.982025
  1.846168
  0.982025
  1.846168
  2.592328
  2.592328
  0.182690
  0.182690
  0.323639
  0.276801
  0.276801
  0.323639
  0.423779
  0.423779
  0.367476
  0.367476
  0.070465
  2.119118
  0.070465
  2.119118
  0.438150
  0.438150
  0.389153
  0.389153
  0.271287
  0.298032
  0.271287
  0.298032
  2.189324
  0.354062
  2.189324
  0.343571
  1.025508
  0.129877
  1.025508
  0.129877
  0.450732
  0.366176
  0.813522
  0.813522
  0.133107
  0.133107
  0.059714
  1.960794
  1.960794
  0.059714
  1.846854
  0.344001
  1.846854
  0.429248
  0.449519
  0.439689
  0.172500
  0.374703
  0.172500
  0.374703
  0.315991
  0.170841
  0.315991
  0.170841
  0.919434
  0.919434
  0.919434
  0.919434
  0.519125
  0.161160
  0.519125
  0.161160
  0.161376
  0.161376
  0.310089
  0.310089
  0.072286
  1.223346
  0.072286
  1.223346
  0.342466
  0.164500
  0.342466
  0.164500
  0.083312
  1.823051
  1.805952
  0.056631
  1.284410
  1.284410
  0.467099
  0.235482
  0.379321
  0.235482
  0.379321
  0.067876
  1.134743
  0.067876
  1.134743
  0.363178
  0.341900
  0.415161
  0.366513
  0.220347
  0.366513
  0.220347
  1.655054
  1.639136
  0.054511
  0.085154
  0.404322
  0.038134
  1.519144
  1.124505
  0.390701
  1.124505
  1.547898
  0.097648
  0.351089
  0.401830
  0.113324
  0.193091
  0.193091
  0.113324
  0.431907
  0.431907
  0.104315
  0.104315
  0.365638
  0.161713
  0.351319
  0.161713
  0.365638
  0.134825
  0.134825
  0.351319
  0.394150
  0.319106
  0.125587
  0.172649
  0.172649
  0.125587
  1.212104
  0.042151
  1.388692
  0.111414
  0.074745
  0.633375
  0.633375
  0.074745
  0.031934
  1.161543
  0.040370
  1.161543
  0.040370
  1.394044
  0.103223
  1.334028
  0.371935
  0.274694
  0.039332
  1.131925
  1.200057
  0.357105
  0.071870
  0.603990
  0.603990
  0.071870
  0.123319
  0.351269
  0.089536
  0.351269
  0.089536
  0.028044
  1.246590
  0.419104
  1.176426
  0.066240
  0.194844
  0.066240
  0.194844
  1.171152
  0.025567
  0.995764
  0.691287
  0.174333
  0.691287
  0.392007
  0.211952
  0.109152
  0.259269
  0.109152
  0.324368
  0.259269
  0.088077
  0.199867
  0.088077
  0.199867
  0.128757
  0.303733
  0.329157
  0.577114
  0.433257
  0.577114
  0.181403
  0.278488
  0.278488
  0.181403
  0.313961
  0.101502
  0.150878
  0.101502
  0.150878
  0.312709
  0.249178
  0.249178
  0.202284
  0.356875
  0.113248
  0.113248
  0.108877
  0.108877
  1.122607
  0.021534
  0.273566
  0.062444
  0.273566
  0.062444
  0.905903
  0.151599
  1.126039
  0.028207
  0.047452
  0.047452
  0.279621
  0.211035
  0.279621
  0.211035
  0.043075
  0.673580
  0.043075
  0.673580
  0.190423
  0.297956
  1.058562
  0.033506
  0.020578
  1.053228
  0.022540
  0.712327
  0.946909
  0.037198
  0.037198
  0.712327
  0.031867
  1.033710
  0.766251
  0.129532
  0.266869
  0.150729
  0.243667
  0.290415
  0.201796
  0.016896
  0.039250
  0.989153
  0.796343
  0.967432
  0.404894
  0.658116
  0.195347
  0.872793
  0.020486
  0.050793
  0.179956
  0.050793
  0.179956
  0.122376
  0.245742
  0.100031
  0.901348
  0.234275
  0.581314
  0.581314
  0.224674
  0.278088
  0.278088
  0.224674
  0.375697
  0.381142
  0.381142
  0.241418
  0.048396
  0.074641
  0.140506
  0.074641
  0.140506
  0.930561
  0.209948
  0.270511
  0.014968
  0.130421
  0.107064
  0.044572
  0.044572
  0.264975
  0.302960
  0.302960
  0.264975
  0.237723
  0.117257
  0.056636
  0.174430
  0.067018
  0.266657
  0.342317
  0.357066
  0.357066
  0.342317
  0.040007
  0.495960
  0.040007
  0.495960
  0.179496
  0.059275
  0.213785
  0.047144
  0.102928
  0.219070
  0.214512
  0.077795
  0.214512
  0.268959
  0.224343
  0.093856
  0.033421
  0.115023
  0.115023
  0.056189
  0.362043
  0.239153
  0.266988
  0.125982
  0.103306
  0.021766
  0.661878
  0.065119
  0.055049
  0.257849
  0.168076
  0.215915
  0.100792
  0.076000
  0.057747
  0.045798
  0.211157
  0.210281
  0.211157
  0.054982
  0.093490
  0.093490
  0.032548
  0.028402
  0.763312
  0.059360
  0.796687
  0.295589
  0.048647
  0.048647
  0.405310
  0.295589
  0.041115
  0.041115
  0.405310
  0.734575
  0.020861
  0.765681
  0.055614
  0.254521
  0.192151
  0.026738
  0.618906
  0.012159
  0.635645
  0.022313
  0.777217
  0.340403
  0.658026
  0.219247
  0.039602
  0.304471
  0.304471
  0.039602
  0.349691
  0.450167
  0.255492
  0.044980
  0.161902
  0.048113
  0.161902
  0.048113
  0.012444
  0.684484
  0.032188
  0.137880
  0.137880
  0.032188
  0.079642
  0.201790
  0.285930
  0.641617
  0.017715
  0.017715
  0.109519
  0.109519
  0.173778
  0.142538
  0.212794
  0.104874
  0.671867
  0.694657
  0.009805
  0.008692
  0.097906
  0.504226
  0.682483
  0.013096
  0.637050
  0.011396
  0.014534
  0.014534
  0.533351
  0.356735
  0.071926
  0.202813
  0.135198
  0.115637
  0.050213
  0.150629
  0.050213
  0.194293
  0.150629
  0.017511
  0.638455
  0.008877
  0.651711
  0.020740
  0.472936
  0.176913
  0.195210
  0.625806
  0.647349
  0.008750
  0.016857
  0.211845
  0.292219
  0.086682
  0.166822
  0.086682
  0.166822
  0.183766
  0.053297
  0.058005
  0.053297
  0.058005
  0.142923
  0.184571
  0.109219
  0.452564
  0.170125
  0.039429
  0.057188
  0.039429
  0.057188
  0.135904
  0.014555
  0.514720
  0.139182
  0.018386
  0.139182
  0.018386
  0.045157
  0.314974
  0.222881
  0.222881
  0.173197
  0.173197
  0.266374
  0.275589
  0.266374
  0.238465
  0.275589
  0.169609
  0.031291
  0.594946
  0.006323
  0.091652
  0.136581
  0.204192
  0.136581
  0.195033
  0.195033
  0.167459
  0.086839
  0.023362
  0.346626
  0.023362
  0.346626
  0.023265
  0.023265
  0.345106
  0.345106
  0.078274
  0.153464
  0.077730
  0.070168
  0.042951
  0.266471
  0.179156
  0.146203
  0.072263
  0.072263
  0.089252
  0.037497
  0.121103
  0.121103
  0.037497
  0.131298
  0.039345
  0.027617
  0.151776
  0.076626
  0.027617
  0.134006
  0.039345
  0.134006
  0.131298
  0.015472
  0.015472
  0.065051
  0.065051
  0.451466
  0.016024
  0.011090
  0.500060
  0.214249
  0.214249
  0.028698
  0.028698
  0.466457
  0.039786
  0.397565
  0.525083
  0.016978
  0.383228
  0.005555
  0.165059
  0.134266
  0.089745
  0.005494
  0.011451
  0.521555
  0.509116
  0.233231
  0.248074
  0.463208
  0.028557
  0.024408
  0.230672
  0.163844
  0.028557
  0.230672
  0.163844
  0.024408
  0.197438
  0.335678
  0.263592
  0.035288
  0.018505
  0.096785
  0.018505
  0.096785
  0.060693
  0.136865
  0.128939
  0.078853
  0.029936
  0.128939
  0.078853
  0.035193
  0.029936
  0.035193
  0.446212
  0.009834
  0.107310
  0.293457
  0.011938
  0.011938
  0.105390
  0.416253
  0.006123
  0.068320
  0.068320
  0.006123
  0.132625
  0.085645
  0.058582
  0.010707
  0.010707
  0.486068
  0.004751
  0.004822
  0.007669
  0.480681
  0.453908
  0.467832
  0.009684
  0.222295
  0.194260
  0.005892
  0.009425
  0.428493
  0.464711
  0.402847
  0.032513
  0.061332
  0.150636
  0.109834
  0.119255
  0.095841
  0.147546
  0.044291
  0.441697
  0.014548
  0.013137
  0.367763
  0.119837
  0.138686
  0.138686
  0.147899
  0.014314
  0.437326
  0.005989
  0.463289
  0.177714
  0.177714
  0.138990
  0.080474
  0.080474
  0.042110
  0.113431
  0.042110
  0.138990
  0.113431
  0.129098
  0.143225
  0.053147
  0.025162
  0.035328
  0.025162
  0.053147
  0.042491
  0.035328
  0.042491
  0.097393
  0.116243
  0.143842
  0.093274
  0.300520
  0.147450
  0.097409
  0.036813
  0.038210
  0.036813
  0.038210
  0.046346
  0.046346
  0.119923
  0.012748
  0.025755
  0.356565
  0.759526
  0.013112
  0.010233
  0.013112
  0.102021
  0.102021
  0.101989
  0.010233
  0.101989
  0.023048
  0.203058
  0.157819
  0.303281
  0.195983
  0.329276
  0.157780
  0.316306
  0.195941
  0.338510
  0.204257
  0.195941
  0.338510
  0.218881
  0.185634
  0.272220
  0.136803
  0.030017
  0.451168
  0.004046
  0.077606
  0.182502
  0.341404
  0.128928
  0.136076
  0.078413
  0.229777
  0.016175
  0.292428
  0.292428
  0.019559
  0.016175
  0.019559
  0.229777
  0.640380
  0.291925
  0.016148
  0.134076
  0.077033
  0.022555
  0.064999
  0.041534
  0.215804
  0.076809
  0.061908
  0.061908
  0.133513
  0.108594
  0.039834
  0.076641
  0.108594
  0.039834
  0.370571
  0.411746
  0.010505
  0.006877
  0.040423
  0.343176
  0.285491
  0.342320
  0.035012
  0.053923
  0.088812
  0.146427
  0.399262
  0.157982
  0.207294
  0.114144
  0.248081
  0.379426
  1.032536
  1.291581
  1.725542
  2.386611
  3.139805
  3.671881
  3.776212
  3.727648
  2.329644
  2.558427
  3.252830
  3.773504
  0.046396
  0.887461
  0.233340
  0.340987
  0.379929
  0.276321
  0.400936
  0.448250
  0.003397
  0.433427
  0.015614
  0.281820
  0.113250
  1.837603
  0.099905
  0.137522
  0.134113
  0.120782
  0.054129
  0.090941
  0.005126
  0.417824
  0.005078
  0.012570
  0.432571
  0.003384
  0.403444
  0.427505
  0.026545
  0.742652
  0.262529
  0.378910
  0.439192
  0.259769
  0.388492
  0.456215
  0.018717
  0.219383
  0.108458
  0.219383
  0.108458
  0.018717
  0.025572
  0.025572
  0.031316
  1.218338
  0.191603
  0.308557
  0.250473
  0.136892
  0.390931
  0.637345
  0.689874
  1.123010
  1.734051
  1.526236
  2.666263
  2.361848
  2.416649
  3.079637
  3.071512
  0.375427
  0.682472
  1.035606
  1.461567
  1.949731
  2.957875
  3.071512
  2.982246
  1.562321
  1.978442
  2.666263
  3.773504
  0.039123
  0.170017
  0.295348
  0.386015
  0.170017
  0.295348
  0.386015
  0.223246
  0.344288
  0.509324
  0.719086
  1.302994
  0.911873
  2.263078
  2.589591
  0.246726
  0.321474
  0.296723
  0.109074
  0.185061
  0.234128
  0.223349
  0.256229
  0.249961
  0.211250
  0.184045
  0.223246
  0.344288
  0.509324
  0.719086
  1.302994
  0.911873
  2.263078
  2.589591
  0.246726
  0.321474
  0.296723
  0.109074
  0.185061
  0.234128
  0.223349
  0.256229
  0.249961
  0.211250
  0.184045
  0.073793
  0.073793
  0.009033
  0.108275
  0.090598
  0.039586
  0.090598
  0.021347
  0.009033
  0.124015
  0.062139
  0.021347
  0.133145
  0.023527
  0.023527
  0.133145
  0.277651
  0.218812
  0.111085
  0.069639
  0.098947
  0.005552
  0.005552
  0.068940
  1.860725
  0.332255
  0.246418
  0.359607
  0.417426
  0.266074
  0.394602
  0.456151
  1.215193
  0.037772
  0.052848
  0.052848
  0.004703
  0.004703
  0.123110
  0.039247
  0.004680
  0.004680
  0.013447
  0.013447
  0.377270
  0.008253
  0.419048
  0.004872
  0.342121
  0.329527
  0.395158
  0.884356
  0.046215
  0.012136
  0.191753
  0.362634
  0.441552
  0.206118
  0.369302
  0.422423
  0.147399
  0.184598
  0.418285
  0.003887
  0.355255
  0.010077
  0.068902
  0.056221
  0.139162
  0.251370
  0.564045
  0.934000
  0.582492
  1.520400
  0.056221
  0.139162
  0.251370
  0.564045
  0.934000
  0.582492
  1.520400
  0.271406
  0.393353
  0.419055
  0.401270
  0.451460
  0.085672
  0.150404
  0.222014
  0.265879
  0.257536
  0.213122
  0.129686
  0.313055
  0.658443
  0.129686
  0.313055
  0.658443
  0.073445
  0.118798
  0.162675
  0.073445
  0.118798
  0.162675
  0.080753
  0.176951
  0.304279
  0.624125
  1.188626
  1.962614
  0.080753
  0.176951
  0.304279
  0.624125
  1.188626
  1.962614
  0.085672
  0.150404
  0.222014
  0.265879
  0.257536
  0.213122
  0.185403
  0.302322
  0.313028
  0.334351
  0.393033
  0.094982
  0.167031
  0.196568
  0.297795
  0.330749
  0.211529
  0.323545
  0.349944
  0.222568
  0.316741
  0.352535
  0.396380
  0.333598
  0.346063
  0.427963
  0.411464
  0.097465
  0.049896
  0.134282
  0.114778
  0.018454
  0.375127
  0.010035
  0.353785
  0.130737
  0.117705
  0.374486
  0.018408
  0.096855
  0.144631
  0.094697
  0.025188
  0.094697
  0.096855
  0.025188
  0.144631
  0.133456
  0.107775
  0.029317
  0.013221
  0.042406
  0.063680
  0.013221
  0.029317
  0.063680
  0.042406
  0.114301
  0.133724
  0.097046
  0.244884
  0.068332
  0.031933
  0.047007
  0.047007
  0.031933
  0.047033
  0.047033
  0.094052
  0.016662
  0.093326
  0.094052
  0.011266
  0.011266
  0.016662
  0.093326
  0.197486
  0.170476
  0.164129
  0.164129
  0.119739
  0.216298
  0.308986
  0.368164
  0.323070
  0.263792
  0.359689
  0.321413
  0.294846
  0.270389
  0.237545
  0.189184
  0.189903
  0.019783
  0.013454
  0.019783
  0.300599
  0.013454
  0.300599
  0.184932
  0.184932
  0.275876
  0.208034
  0.198466
  0.291174
  0.365224
  0.350323
  0.311034
  0.312045
  0.308569
  0.606342
  0.748492
  1.288818
  1.690787
  1.644597
  1.282907
  2.666263
  3.071512
  2.218320
  3.129863
  2.706787
  0.683533
  0.802765
  1.032536
  2.810467
  0.227011
  0.369897
  0.569482
  0.567595
  0.227986
  0.567595
  0.227986
  0.144776
  0.292069
  0.371589
  0.713461
  1.181429
  0.794995
  1.335868
  1.562738
  1.893829
  2.673257
  3.278317
  2.530615
  3.071512
  2.666263
  1.809363
  1.935537
  2.858264
  2.567879
  0.090007
  0.173891
  0.226954
  0.152171
  0.078789
  0.123096
  0.134943
  0.190808
  0.246900
  0.179630
  0.211655
  0.163186
  0.127319
  0.147031
  0.153120
  0.094681
  0.223429
  0.428258
  0.677876
  1.140812
  0.091832
  0.158088
  0.228143
  0.249740
  0.265174
  0.227438
  0.286977
  0.094681
  0.223429
  0.428258
  0.677876
  1.140812
  0.091832
  0.162453
  0.230099
  0.078789
  0.123096
  0.134943
  0.190808
  0.179630
  0.848133
  1.259489
  1.913518
  2.704445
  3.553352
  3.776212
  1.699239
  1.766004
  2.557401
  2.876728
  3.103277
  2.892960
  0.019454
  0.034965
  0.055981
  0.108129